+ 0.1 6 5 tcp 40 ------- 1 6.0 1.0 0 0
- 0.1 6 5 tcp 40 ------- 1 6.0 1.0 0 0
r 0.100303 6 5 tcp 40 ------- 1 6.0 1.0 0 0
+ 0.100303 5 4 tcp 40 ------- 1 6.0 1.0 0 0
- 0.100303 5 4 tcp 40 ------- 1 6.0 1.0 0 0
r 0.100606 5 4 tcp 40 ------- 1 6.0 1.0 0 0
+ 0.100606 4 3 tcp 40 ------- 1 6.0 1.0 0 0
- 0.100606 4 3 tcp 40 ------- 1 6.0 1.0 0 0
r 0.101431 4 3 tcp 40 ------- 1 6.0 1.0 0 0
+ 0.101431 3 2 tcp 40 ------- 1 6.0 1.0 0 0
- 0.101431 3 2 tcp 40 ------- 1 6.0 1.0 0 0
r 0.101663 3 2 tcp 40 ------- 1 6.0 1.0 0 0
+ 0.101663 2 1 tcp 40 ------- 1 6.0 1.0 0 0
- 0.101663 2 1 tcp 40 ------- 1 6.0 1.0 0 0
r 0.101895 2 1 tcp 40 ------- 1 6.0 1.0 0 0
+ 0.101895 1 2 ack 40 ------- 1 1.0 6.0 0 1
- 0.101895 1 2 ack 40 ------- 1 1.0 6.0 0 1
r 0.102127 1 2 ack 40 ------- 1 1.0 6.0 0 1
+ 0.102127 2 3 ack 40 ------- 1 1.0 6.0 0 1
- 0.102127 2 3 ack 40 ------- 1 1.0 6.0 0 1
r 0.102359 2 3 ack 40 ------- 1 1.0 6.0 0 1
+ 0.102359 3 4 ack 40 ------- 1 1.0 6.0 0 1
- 0.102359 3 4 ack 40 ------- 1 1.0 6.0 0 1
r 0.105759 3 4 ack 40 ------- 1 1.0 6.0 0 1
+ 0.105759 4 5 ack 40 ------- 1 1.0 6.0 0 1
- 0.105759 4 5 ack 40 ------- 1 1.0 6.0 0 1
r 0.106063 4 5 ack 40 ------- 1 1.0 6.0 0 1
+ 0.106063 5 6 ack 40 ------- 1 1.0 6.0 0 1
- 0.106063 5 6 ack 40 ------- 1 1.0 6.0 0 1
r 0.106366 5 6 ack 40 ------- 1 1.0 6.0 0 1
+ 0.106366 6 5 tcp 1040 ------- 1 6.0 1.0 1 2
- 0.106366 6 5 tcp 1040 ------- 1 6.0 1.0 1 2
+ 0.106366 6 5 tcp 1040 ------- 1 6.0 1.0 2 3
- 0.106449 6 5 tcp 1040 ------- 1 6.0 1.0 2 3
r 0.106749 6 5 tcp 1040 ------- 1 6.0 1.0 1 2
+ 0.106749 5 4 tcp 1040 ------- 1 6.0 1.0 1 2
- 0.106749 5 4 tcp 1040 ------- 1 6.0 1.0 1 2
r 0.106832 6 5 tcp 1040 ------- 1 6.0 1.0 2 3
+ 0.106832 5 4 tcp 1040 ------- 1 6.0 1.0 2 3
- 0.106832 5 4 tcp 1040 ------- 1 6.0 1.0 2 3
r 0.107132 5 4 tcp 1040 ------- 1 6.0 1.0 1 2
+ 0.107132 4 3 tcp 1040 ------- 1 6.0 1.0 1 2
- 0.107132 4 3 tcp 1040 ------- 1 6.0 1.0 1 2
r 0.107215 5 4 tcp 1040 ------- 1 6.0 1.0 2 3
+ 0.107215 4 3 tcp 1040 ------- 1 6.0 1.0 2 3
- 0.123382 4 3 tcp 1040 ------- 1 6.0 1.0 2 3
r 0.123582 4 3 tcp 1040 ------- 1 6.0 1.0 1 2
+ 0.123582 3 2 tcp 1040 ------- 1 6.0 1.0 1 2
- 0.123582 3 2 tcp 1040 ------- 1 6.0 1.0 1 2
r 0.124614 3 2 tcp 1040 ------- 1 6.0 1.0 1 2
+ 0.124614 2 1 tcp 1040 ------- 1 6.0 1.0 1 2
- 0.124614 2 1 tcp 1040 ------- 1 6.0 1.0 1 2
r 0.125646 2 1 tcp 1040 ------- 1 6.0 1.0 1 2
+ 0.125646 1 2 ack 40 ------- 1 1.0 6.0 1 4
- 0.125646 1 2 ack 40 ------- 1 1.0 6.0 1 4
r 0.125878 1 2 ack 40 ------- 1 1.0 6.0 1 4
+ 0.125878 2 3 ack 40 ------- 1 1.0 6.0 1 4
- 0.125878 2 3 ack 40 ------- 1 1.0 6.0 1 4
r 0.12611 2 3 ack 40 ------- 1 1.0 6.0 1 4
+ 0.12611 3 4 ack 40 ------- 1 1.0 6.0 1 4
- 0.12611 3 4 ack 40 ------- 1 1.0 6.0 1 4
r 0.12951 3 4 ack 40 ------- 1 1.0 6.0 1 4
+ 0.12951 4 5 ack 40 ------- 1 1.0 6.0 1 4
- 0.12951 4 5 ack 40 ------- 1 1.0 6.0 1 4
r 0.129813 4 5 ack 40 ------- 1 1.0 6.0 1 4
+ 0.129813 5 6 ack 40 ------- 1 1.0 6.0 1 4
- 0.129813 5 6 ack 40 ------- 1 1.0 6.0 1 4
r 0.130117 5 6 ack 40 ------- 1 1.0 6.0 1 4
+ 0.130117 6 5 tcp 1040 ------- 1 6.0 1.0 3 5
- 0.130117 6 5 tcp 1040 ------- 1 6.0 1.0 3 5
+ 0.130117 6 5 tcp 1040 ------- 1 6.0 1.0 4 6
- 0.1302 6 5 tcp 1040 ------- 1 6.0 1.0 4 6
r 0.1305 6 5 tcp 1040 ------- 1 6.0 1.0 3 5
+ 0.1305 5 4 tcp 1040 ------- 1 6.0 1.0 3 5
- 0.1305 5 4 tcp 1040 ------- 1 6.0 1.0 3 5
r 0.130583 6 5 tcp 1040 ------- 1 6.0 1.0 4 6
+ 0.130583 5 4 tcp 1040 ------- 1 6.0 1.0 4 6
- 0.130583 5 4 tcp 1040 ------- 1 6.0 1.0 4 6
r 0.130883 5 4 tcp 1040 ------- 1 6.0 1.0 3 5
+ 0.130883 4 3 tcp 1040 ------- 1 6.0 1.0 3 5
r 0.130966 5 4 tcp 1040 ------- 1 6.0 1.0 4 6
+ 0.130966 4 3 tcp 1040 ------- 1 6.0 1.0 4 6
- 0.139632 4 3 tcp 1040 ------- 1 6.0 1.0 3 5
r 0.139832 4 3 tcp 1040 ------- 1 6.0 1.0 2 3
+ 0.139832 3 2 tcp 1040 ------- 1 6.0 1.0 2 3
- 0.139832 3 2 tcp 1040 ------- 1 6.0 1.0 2 3
r 0.140864 3 2 tcp 1040 ------- 1 6.0 1.0 2 3
+ 0.140864 2 1 tcp 1040 ------- 1 6.0 1.0 2 3
- 0.140864 2 1 tcp 1040 ------- 1 6.0 1.0 2 3
r 0.141896 2 1 tcp 1040 ------- 1 6.0 1.0 2 3
+ 0.141896 1 2 ack 40 ------- 1 1.0 6.0 2 7
- 0.141896 1 2 ack 40 ------- 1 1.0 6.0 2 7
r 0.142128 1 2 ack 40 ------- 1 1.0 6.0 2 7
+ 0.142128 2 3 ack 40 ------- 1 1.0 6.0 2 7
- 0.142128 2 3 ack 40 ------- 1 1.0 6.0 2 7
r 0.14236 2 3 ack 40 ------- 1 1.0 6.0 2 7
+ 0.14236 3 4 ack 40 ------- 1 1.0 6.0 2 7
- 0.14236 3 4 ack 40 ------- 1 1.0 6.0 2 7
r 0.14576 3 4 ack 40 ------- 1 1.0 6.0 2 7
+ 0.14576 4 5 ack 40 ------- 1 1.0 6.0 2 7
- 0.14576 4 5 ack 40 ------- 1 1.0 6.0 2 7
r 0.146063 4 5 ack 40 ------- 1 1.0 6.0 2 7
+ 0.146063 5 6 ack 40 ------- 1 1.0 6.0 2 7
- 0.146063 5 6 ack 40 ------- 1 1.0 6.0 2 7
r 0.146367 5 6 ack 40 ------- 1 1.0 6.0 2 7
+ 0.146367 6 5 tcp 1040 ------- 1 6.0 1.0 5 8
- 0.146367 6 5 tcp 1040 ------- 1 6.0 1.0 5 8
+ 0.146367 6 5 tcp 1040 ------- 1 6.0 1.0 6 9
- 0.14645 6 5 tcp 1040 ------- 1 6.0 1.0 6 9
r 0.14675 6 5 tcp 1040 ------- 1 6.0 1.0 5 8
+ 0.14675 5 4 tcp 1040 ------- 1 6.0 1.0 5 8
- 0.14675 5 4 tcp 1040 ------- 1 6.0 1.0 5 8
r 0.146833 6 5 tcp 1040 ------- 1 6.0 1.0 6 9
+ 0.146833 5 4 tcp 1040 ------- 1 6.0 1.0 6 9
- 0.146833 5 4 tcp 1040 ------- 1 6.0 1.0 6 9
r 0.147133 5 4 tcp 1040 ------- 1 6.0 1.0 5 8
+ 0.147133 4 3 tcp 1040 ------- 1 6.0 1.0 5 8
r 0.147216 5 4 tcp 1040 ------- 1 6.0 1.0 6 9
+ 0.147216 4 3 tcp 1040 ------- 1 6.0 1.0 6 9
- 0.155882 4 3 tcp 1040 ------- 1 6.0 1.0 4 6
r 0.156082 4 3 tcp 1040 ------- 1 6.0 1.0 3 5
+ 0.156082 3 2 tcp 1040 ------- 1 6.0 1.0 3 5
- 0.156082 3 2 tcp 1040 ------- 1 6.0 1.0 3 5
r 0.157114 3 2 tcp 1040 ------- 1 6.0 1.0 3 5
+ 0.157114 2 1 tcp 1040 ------- 1 6.0 1.0 3 5
- 0.157114 2 1 tcp 1040 ------- 1 6.0 1.0 3 5
r 0.158146 2 1 tcp 1040 ------- 1 6.0 1.0 3 5
+ 0.158146 1 2 ack 40 ------- 1 1.0 6.0 3 10
- 0.158146 1 2 ack 40 ------- 1 1.0 6.0 3 10
r 0.158378 1 2 ack 40 ------- 1 1.0 6.0 3 10
+ 0.158378 2 3 ack 40 ------- 1 1.0 6.0 3 10
- 0.158378 2 3 ack 40 ------- 1 1.0 6.0 3 10
r 0.15861 2 3 ack 40 ------- 1 1.0 6.0 3 10
+ 0.15861 3 4 ack 40 ------- 1 1.0 6.0 3 10
- 0.15861 3 4 ack 40 ------- 1 1.0 6.0 3 10
r 0.16201 3 4 ack 40 ------- 1 1.0 6.0 3 10
+ 0.16201 4 5 ack 40 ------- 1 1.0 6.0 3 10
- 0.16201 4 5 ack 40 ------- 1 1.0 6.0 3 10
r 0.162313 4 5 ack 40 ------- 1 1.0 6.0 3 10
+ 0.162313 5 6 ack 40 ------- 1 1.0 6.0 3 10
- 0.162313 5 6 ack 40 ------- 1 1.0 6.0 3 10
r 0.162617 5 6 ack 40 ------- 1 1.0 6.0 3 10
+ 0.162617 6 5 tcp 1040 ------- 1 6.0 1.0 7 11
- 0.162617 6 5 tcp 1040 ------- 1 6.0 1.0 7 11
+ 0.162617 6 5 tcp 1040 ------- 1 6.0 1.0 8 12
- 0.1627 6 5 tcp 1040 ------- 1 6.0 1.0 8 12
r 0.163 6 5 tcp 1040 ------- 1 6.0 1.0 7 11
+ 0.163 5 4 tcp 1040 ------- 1 6.0 1.0 7 11
- 0.163 5 4 tcp 1040 ------- 1 6.0 1.0 7 11
r 0.163083 6 5 tcp 1040 ------- 1 6.0 1.0 8 12
+ 0.163083 5 4 tcp 1040 ------- 1 6.0 1.0 8 12
- 0.163083 5 4 tcp 1040 ------- 1 6.0 1.0 8 12
r 0.163383 5 4 tcp 1040 ------- 1 6.0 1.0 7 11
+ 0.163383 4 3 tcp 1040 ------- 1 6.0 1.0 7 11
r 0.163466 5 4 tcp 1040 ------- 1 6.0 1.0 8 12
+ 0.163466 4 3 tcp 1040 ------- 1 6.0 1.0 8 12
- 0.172132 4 3 tcp 1040 ------- 1 6.0 1.0 5 8
r 0.172332 4 3 tcp 1040 ------- 1 6.0 1.0 4 6
+ 0.172332 3 2 tcp 1040 ------- 1 6.0 1.0 4 6
- 0.172332 3 2 tcp 1040 ------- 1 6.0 1.0 4 6
r 0.173364 3 2 tcp 1040 ------- 1 6.0 1.0 4 6
+ 0.173364 2 1 tcp 1040 ------- 1 6.0 1.0 4 6
- 0.173364 2 1 tcp 1040 ------- 1 6.0 1.0 4 6
r 0.174396 2 1 tcp 1040 ------- 1 6.0 1.0 4 6
+ 0.174396 1 2 ack 40 ------- 1 1.0 6.0 4 13
- 0.174396 1 2 ack 40 ------- 1 1.0 6.0 4 13
r 0.174628 1 2 ack 40 ------- 1 1.0 6.0 4 13
+ 0.174628 2 3 ack 40 ------- 1 1.0 6.0 4 13
- 0.174628 2 3 ack 40 ------- 1 1.0 6.0 4 13
r 0.17486 2 3 ack 40 ------- 1 1.0 6.0 4 13
+ 0.17486 3 4 ack 40 ------- 1 1.0 6.0 4 13
- 0.17486 3 4 ack 40 ------- 1 1.0 6.0 4 13
r 0.17826 3 4 ack 40 ------- 1 1.0 6.0 4 13
+ 0.17826 4 5 ack 40 ------- 1 1.0 6.0 4 13
- 0.17826 4 5 ack 40 ------- 1 1.0 6.0 4 13
r 0.178563 4 5 ack 40 ------- 1 1.0 6.0 4 13
+ 0.178563 5 6 ack 40 ------- 1 1.0 6.0 4 13
- 0.178563 5 6 ack 40 ------- 1 1.0 6.0 4 13
r 0.178867 5 6 ack 40 ------- 1 1.0 6.0 4 13
+ 0.178867 6 5 tcp 1040 ------- 1 6.0 1.0 9 14
- 0.178867 6 5 tcp 1040 ------- 1 6.0 1.0 9 14
+ 0.178867 6 5 tcp 1040 ------- 1 6.0 1.0 10 15
- 0.17895 6 5 tcp 1040 ------- 1 6.0 1.0 10 15
r 0.17925 6 5 tcp 1040 ------- 1 6.0 1.0 9 14
+ 0.17925 5 4 tcp 1040 ------- 1 6.0 1.0 9 14
- 0.17925 5 4 tcp 1040 ------- 1 6.0 1.0 9 14
r 0.179333 6 5 tcp 1040 ------- 1 6.0 1.0 10 15
+ 0.179333 5 4 tcp 1040 ------- 1 6.0 1.0 10 15
- 0.179333 5 4 tcp 1040 ------- 1 6.0 1.0 10 15
r 0.179633 5 4 tcp 1040 ------- 1 6.0 1.0 9 14
+ 0.179633 4 3 tcp 1040 ------- 1 6.0 1.0 9 14
r 0.179716 5 4 tcp 1040 ------- 1 6.0 1.0 10 15
+ 0.179716 4 3 tcp 1040 ------- 1 6.0 1.0 10 15
- 0.188382 4 3 tcp 1040 ------- 1 6.0 1.0 6 9
r 0.188582 4 3 tcp 1040 ------- 1 6.0 1.0 5 8
+ 0.188582 3 2 tcp 1040 ------- 1 6.0 1.0 5 8
- 0.188582 3 2 tcp 1040 ------- 1 6.0 1.0 5 8
r 0.189614 3 2 tcp 1040 ------- 1 6.0 1.0 5 8
+ 0.189614 2 1 tcp 1040 ------- 1 6.0 1.0 5 8
- 0.189614 2 1 tcp 1040 ------- 1 6.0 1.0 5 8
r 0.190646 2 1 tcp 1040 ------- 1 6.0 1.0 5 8
+ 0.190646 1 2 ack 40 ------- 1 1.0 6.0 5 16
- 0.190646 1 2 ack 40 ------- 1 1.0 6.0 5 16
r 0.190878 1 2 ack 40 ------- 1 1.0 6.0 5 16
+ 0.190878 2 3 ack 40 ------- 1 1.0 6.0 5 16
- 0.190878 2 3 ack 40 ------- 1 1.0 6.0 5 16
r 0.19111 2 3 ack 40 ------- 1 1.0 6.0 5 16
+ 0.19111 3 4 ack 40 ------- 1 1.0 6.0 5 16
- 0.19111 3 4 ack 40 ------- 1 1.0 6.0 5 16
r 0.19451 3 4 ack 40 ------- 1 1.0 6.0 5 16
+ 0.19451 4 5 ack 40 ------- 1 1.0 6.0 5 16
- 0.19451 4 5 ack 40 ------- 1 1.0 6.0 5 16
r 0.194813 4 5 ack 40 ------- 1 1.0 6.0 5 16
+ 0.194813 5 6 ack 40 ------- 1 1.0 6.0 5 16
- 0.194813 5 6 ack 40 ------- 1 1.0 6.0 5 16
r 0.195117 5 6 ack 40 ------- 1 1.0 6.0 5 16
+ 0.195117 6 5 tcp 1040 ------- 1 6.0 1.0 11 17
- 0.195117 6 5 tcp 1040 ------- 1 6.0 1.0 11 17
+ 0.195117 6 5 tcp 1040 ------- 1 6.0 1.0 12 18
- 0.1952 6 5 tcp 1040 ------- 1 6.0 1.0 12 18
r 0.1955 6 5 tcp 1040 ------- 1 6.0 1.0 11 17
+ 0.1955 5 4 tcp 1040 ------- 1 6.0 1.0 11 17
- 0.1955 5 4 tcp 1040 ------- 1 6.0 1.0 11 17
r 0.195583 6 5 tcp 1040 ------- 1 6.0 1.0 12 18
+ 0.195583 5 4 tcp 1040 ------- 1 6.0 1.0 12 18
- 0.195583 5 4 tcp 1040 ------- 1 6.0 1.0 12 18
r 0.195883 5 4 tcp 1040 ------- 1 6.0 1.0 11 17
+ 0.195883 4 3 tcp 1040 ------- 1 6.0 1.0 11 17
r 0.195966 5 4 tcp 1040 ------- 1 6.0 1.0 12 18
+ 0.195966 4 3 tcp 1040 ------- 1 6.0 1.0 12 18
- 0.204632 4 3 tcp 1040 ------- 1 6.0 1.0 7 11
r 0.204832 4 3 tcp 1040 ------- 1 6.0 1.0 6 9
+ 0.204832 3 2 tcp 1040 ------- 1 6.0 1.0 6 9
- 0.204832 3 2 tcp 1040 ------- 1 6.0 1.0 6 9
r 0.205864 3 2 tcp 1040 ------- 1 6.0 1.0 6 9
+ 0.205864 2 1 tcp 1040 ------- 1 6.0 1.0 6 9
- 0.205864 2 1 tcp 1040 ------- 1 6.0 1.0 6 9
r 0.206896 2 1 tcp 1040 ------- 1 6.0 1.0 6 9
+ 0.206896 1 2 ack 40 ------- 1 1.0 6.0 6 19
- 0.206896 1 2 ack 40 ------- 1 1.0 6.0 6 19
r 0.207128 1 2 ack 40 ------- 1 1.0 6.0 6 19
+ 0.207128 2 3 ack 40 ------- 1 1.0 6.0 6 19
- 0.207128 2 3 ack 40 ------- 1 1.0 6.0 6 19
r 0.20736 2 3 ack 40 ------- 1 1.0 6.0 6 19
+ 0.20736 3 4 ack 40 ------- 1 1.0 6.0 6 19
- 0.20736 3 4 ack 40 ------- 1 1.0 6.0 6 19
r 0.21076 3 4 ack 40 ------- 1 1.0 6.0 6 19
+ 0.21076 4 5 ack 40 ------- 1 1.0 6.0 6 19
- 0.21076 4 5 ack 40 ------- 1 1.0 6.0 6 19
r 0.211063 4 5 ack 40 ------- 1 1.0 6.0 6 19
+ 0.211063 5 6 ack 40 ------- 1 1.0 6.0 6 19
- 0.211063 5 6 ack 40 ------- 1 1.0 6.0 6 19
r 0.211367 5 6 ack 40 ------- 1 1.0 6.0 6 19
+ 0.211367 6 5 tcp 1040 ------- 1 6.0 1.0 13 20
- 0.211367 6 5 tcp 1040 ------- 1 6.0 1.0 13 20
+ 0.211367 6 5 tcp 1040 ------- 1 6.0 1.0 14 21
- 0.21145 6 5 tcp 1040 ------- 1 6.0 1.0 14 21
r 0.21175 6 5 tcp 1040 ------- 1 6.0 1.0 13 20
+ 0.21175 5 4 tcp 1040 ------- 1 6.0 1.0 13 20
- 0.21175 5 4 tcp 1040 ------- 1 6.0 1.0 13 20
r 0.211833 6 5 tcp 1040 ------- 1 6.0 1.0 14 21
+ 0.211833 5 4 tcp 1040 ------- 1 6.0 1.0 14 21
- 0.211833 5 4 tcp 1040 ------- 1 6.0 1.0 14 21
r 0.212133 5 4 tcp 1040 ------- 1 6.0 1.0 13 20
+ 0.212133 4 3 tcp 1040 ------- 1 6.0 1.0 13 20
r 0.212216 5 4 tcp 1040 ------- 1 6.0 1.0 14 21
+ 0.212216 4 3 tcp 1040 ------- 1 6.0 1.0 14 21
- 0.220882 4 3 tcp 1040 ------- 1 6.0 1.0 8 12
r 0.221082 4 3 tcp 1040 ------- 1 6.0 1.0 7 11
+ 0.221082 3 2 tcp 1040 ------- 1 6.0 1.0 7 11
- 0.221082 3 2 tcp 1040 ------- 1 6.0 1.0 7 11
r 0.222114 3 2 tcp 1040 ------- 1 6.0 1.0 7 11
+ 0.222114 2 1 tcp 1040 ------- 1 6.0 1.0 7 11
- 0.222114 2 1 tcp 1040 ------- 1 6.0 1.0 7 11
r 0.223146 2 1 tcp 1040 ------- 1 6.0 1.0 7 11
+ 0.223146 1 2 ack 40 ------- 1 1.0 6.0 7 22
- 0.223146 1 2 ack 40 ------- 1 1.0 6.0 7 22
r 0.223378 1 2 ack 40 ------- 1 1.0 6.0 7 22
+ 0.223378 2 3 ack 40 ------- 1 1.0 6.0 7 22
- 0.223378 2 3 ack 40 ------- 1 1.0 6.0 7 22
r 0.22361 2 3 ack 40 ------- 1 1.0 6.0 7 22
+ 0.22361 3 4 ack 40 ------- 1 1.0 6.0 7 22
- 0.22361 3 4 ack 40 ------- 1 1.0 6.0 7 22
r 0.22701 3 4 ack 40 ------- 1 1.0 6.0 7 22
+ 0.22701 4 5 ack 40 ------- 1 1.0 6.0 7 22
- 0.22701 4 5 ack 40 ------- 1 1.0 6.0 7 22
r 0.227313 4 5 ack 40 ------- 1 1.0 6.0 7 22
+ 0.227313 5 6 ack 40 ------- 1 1.0 6.0 7 22
- 0.227313 5 6 ack 40 ------- 1 1.0 6.0 7 22
r 0.227617 5 6 ack 40 ------- 1 1.0 6.0 7 22
+ 0.227617 6 5 tcp 1040 ------- 1 6.0 1.0 15 23
- 0.227617 6 5 tcp 1040 ------- 1 6.0 1.0 15 23
+ 0.227617 6 5 tcp 1040 ------- 1 6.0 1.0 16 24
- 0.2277 6 5 tcp 1040 ------- 1 6.0 1.0 16 24
r 0.228 6 5 tcp 1040 ------- 1 6.0 1.0 15 23
+ 0.228 5 4 tcp 1040 ------- 1 6.0 1.0 15 23
- 0.228 5 4 tcp 1040 ------- 1 6.0 1.0 15 23
r 0.228083 6 5 tcp 1040 ------- 1 6.0 1.0 16 24
+ 0.228083 5 4 tcp 1040 ------- 1 6.0 1.0 16 24
- 0.228083 5 4 tcp 1040 ------- 1 6.0 1.0 16 24
r 0.228383 5 4 tcp 1040 ------- 1 6.0 1.0 15 23
+ 0.228383 4 3 tcp 1040 ------- 1 6.0 1.0 15 23
r 0.228466 5 4 tcp 1040 ------- 1 6.0 1.0 16 24
+ 0.228466 4 3 tcp 1040 ------- 1 6.0 1.0 16 24
- 0.237132 4 3 tcp 1040 ------- 1 6.0 1.0 9 14
r 0.237332 4 3 tcp 1040 ------- 1 6.0 1.0 8 12
+ 0.237332 3 2 tcp 1040 ------- 1 6.0 1.0 8 12
- 0.237332 3 2 tcp 1040 ------- 1 6.0 1.0 8 12
r 0.238364 3 2 tcp 1040 ------- 1 6.0 1.0 8 12
+ 0.238364 2 1 tcp 1040 ------- 1 6.0 1.0 8 12
- 0.238364 2 1 tcp 1040 ------- 1 6.0 1.0 8 12
r 0.239396 2 1 tcp 1040 ------- 1 6.0 1.0 8 12
+ 0.239396 1 2 ack 40 ------- 1 1.0 6.0 8 25
- 0.239396 1 2 ack 40 ------- 1 1.0 6.0 8 25
r 0.239628 1 2 ack 40 ------- 1 1.0 6.0 8 25
+ 0.239628 2 3 ack 40 ------- 1 1.0 6.0 8 25
- 0.239628 2 3 ack 40 ------- 1 1.0 6.0 8 25
r 0.23986 2 3 ack 40 ------- 1 1.0 6.0 8 25
+ 0.23986 3 4 ack 40 ------- 1 1.0 6.0 8 25
- 0.23986 3 4 ack 40 ------- 1 1.0 6.0 8 25
r 0.24326 3 4 ack 40 ------- 1 1.0 6.0 8 25
+ 0.24326 4 5 ack 40 ------- 1 1.0 6.0 8 25
- 0.24326 4 5 ack 40 ------- 1 1.0 6.0 8 25
r 0.243563 4 5 ack 40 ------- 1 1.0 6.0 8 25
+ 0.243563 5 6 ack 40 ------- 1 1.0 6.0 8 25
- 0.243563 5 6 ack 40 ------- 1 1.0 6.0 8 25
r 0.243867 5 6 ack 40 ------- 1 1.0 6.0 8 25
+ 0.243867 6 5 tcp 1040 ------- 1 6.0 1.0 17 26
- 0.243867 6 5 tcp 1040 ------- 1 6.0 1.0 17 26
+ 0.243867 6 5 tcp 1040 ------- 1 6.0 1.0 18 27
- 0.24395 6 5 tcp 1040 ------- 1 6.0 1.0 18 27
r 0.24425 6 5 tcp 1040 ------- 1 6.0 1.0 17 26
+ 0.24425 5 4 tcp 1040 ------- 1 6.0 1.0 17 26
- 0.24425 5 4 tcp 1040 ------- 1 6.0 1.0 17 26
r 0.244333 6 5 tcp 1040 ------- 1 6.0 1.0 18 27
+ 0.244333 5 4 tcp 1040 ------- 1 6.0 1.0 18 27
- 0.244333 5 4 tcp 1040 ------- 1 6.0 1.0 18 27
r 0.244633 5 4 tcp 1040 ------- 1 6.0 1.0 17 26
+ 0.244633 4 3 tcp 1040 ------- 1 6.0 1.0 17 26
r 0.244716 5 4 tcp 1040 ------- 1 6.0 1.0 18 27
+ 0.244716 4 3 tcp 1040 ------- 1 6.0 1.0 18 27
- 0.253382 4 3 tcp 1040 ------- 1 6.0 1.0 10 15
r 0.253582 4 3 tcp 1040 ------- 1 6.0 1.0 9 14
+ 0.253582 3 2 tcp 1040 ------- 1 6.0 1.0 9 14
- 0.253582 3 2 tcp 1040 ------- 1 6.0 1.0 9 14
r 0.254614 3 2 tcp 1040 ------- 1 6.0 1.0 9 14
+ 0.254614 2 1 tcp 1040 ------- 1 6.0 1.0 9 14
- 0.254614 2 1 tcp 1040 ------- 1 6.0 1.0 9 14
r 0.255646 2 1 tcp 1040 ------- 1 6.0 1.0 9 14
+ 0.255646 1 2 ack 40 ------- 1 1.0 6.0 9 28
- 0.255646 1 2 ack 40 ------- 1 1.0 6.0 9 28
r 0.255878 1 2 ack 40 ------- 1 1.0 6.0 9 28
+ 0.255878 2 3 ack 40 ------- 1 1.0 6.0 9 28
- 0.255878 2 3 ack 40 ------- 1 1.0 6.0 9 28
r 0.25611 2 3 ack 40 ------- 1 1.0 6.0 9 28
+ 0.25611 3 4 ack 40 ------- 1 1.0 6.0 9 28
- 0.25611 3 4 ack 40 ------- 1 1.0 6.0 9 28
r 0.25951 3 4 ack 40 ------- 1 1.0 6.0 9 28
+ 0.25951 4 5 ack 40 ------- 1 1.0 6.0 9 28
- 0.25951 4 5 ack 40 ------- 1 1.0 6.0 9 28
r 0.259813 4 5 ack 40 ------- 1 1.0 6.0 9 28
+ 0.259813 5 6 ack 40 ------- 1 1.0 6.0 9 28
- 0.259813 5 6 ack 40 ------- 1 1.0 6.0 9 28
r 0.260117 5 6 ack 40 ------- 1 1.0 6.0 9 28
+ 0.260117 6 5 tcp 1040 ------- 1 6.0 1.0 19 29
- 0.260117 6 5 tcp 1040 ------- 1 6.0 1.0 19 29
+ 0.260117 6 5 tcp 1040 ------- 1 6.0 1.0 20 30
- 0.2602 6 5 tcp 1040 ------- 1 6.0 1.0 20 30
r 0.2605 6 5 tcp 1040 ------- 1 6.0 1.0 19 29
+ 0.2605 5 4 tcp 1040 ------- 1 6.0 1.0 19 29
- 0.2605 5 4 tcp 1040 ------- 1 6.0 1.0 19 29
r 0.260583 6 5 tcp 1040 ------- 1 6.0 1.0 20 30
+ 0.260583 5 4 tcp 1040 ------- 1 6.0 1.0 20 30
- 0.260583 5 4 tcp 1040 ------- 1 6.0 1.0 20 30
r 0.260883 5 4 tcp 1040 ------- 1 6.0 1.0 19 29
+ 0.260883 4 3 tcp 1040 ------- 1 6.0 1.0 19 29
r 0.260966 5 4 tcp 1040 ------- 1 6.0 1.0 20 30
+ 0.260966 4 3 tcp 1040 ------- 1 6.0 1.0 20 30
- 0.269632 4 3 tcp 1040 ------- 1 6.0 1.0 11 17
r 0.269832 4 3 tcp 1040 ------- 1 6.0 1.0 10 15
+ 0.269832 3 2 tcp 1040 ------- 1 6.0 1.0 10 15
- 0.269832 3 2 tcp 1040 ------- 1 6.0 1.0 10 15
r 0.270864 3 2 tcp 1040 ------- 1 6.0 1.0 10 15
+ 0.270864 2 1 tcp 1040 ------- 1 6.0 1.0 10 15
- 0.270864 2 1 tcp 1040 ------- 1 6.0 1.0 10 15
r 0.271896 2 1 tcp 1040 ------- 1 6.0 1.0 10 15
+ 0.271896 1 2 ack 40 ------- 1 1.0 6.0 10 31
- 0.271896 1 2 ack 40 ------- 1 1.0 6.0 10 31
r 0.272128 1 2 ack 40 ------- 1 1.0 6.0 10 31
+ 0.272128 2 3 ack 40 ------- 1 1.0 6.0 10 31
- 0.272128 2 3 ack 40 ------- 1 1.0 6.0 10 31
r 0.27236 2 3 ack 40 ------- 1 1.0 6.0 10 31
+ 0.27236 3 4 ack 40 ------- 1 1.0 6.0 10 31
- 0.27236 3 4 ack 40 ------- 1 1.0 6.0 10 31
r 0.27576 3 4 ack 40 ------- 1 1.0 6.0 10 31
+ 0.27576 4 5 ack 40 ------- 1 1.0 6.0 10 31
- 0.27576 4 5 ack 40 ------- 1 1.0 6.0 10 31
r 0.276063 4 5 ack 40 ------- 1 1.0 6.0 10 31
+ 0.276063 5 6 ack 40 ------- 1 1.0 6.0 10 31
- 0.276063 5 6 ack 40 ------- 1 1.0 6.0 10 31
r 0.276367 5 6 ack 40 ------- 1 1.0 6.0 10 31
+ 0.276367 6 5 tcp 1040 ------- 1 6.0 1.0 21 32
- 0.276367 6 5 tcp 1040 ------- 1 6.0 1.0 21 32
+ 0.276367 6 5 tcp 1040 ------- 1 6.0 1.0 22 33
- 0.27645 6 5 tcp 1040 ------- 1 6.0 1.0 22 33
r 0.27675 6 5 tcp 1040 ------- 1 6.0 1.0 21 32
+ 0.27675 5 4 tcp 1040 ------- 1 6.0 1.0 21 32
- 0.27675 5 4 tcp 1040 ------- 1 6.0 1.0 21 32
r 0.276833 6 5 tcp 1040 ------- 1 6.0 1.0 22 33
+ 0.276833 5 4 tcp 1040 ------- 1 6.0 1.0 22 33
- 0.276833 5 4 tcp 1040 ------- 1 6.0 1.0 22 33
r 0.277133 5 4 tcp 1040 ------- 1 6.0 1.0 21 32
+ 0.277133 4 3 tcp 1040 ------- 1 6.0 1.0 21 32
r 0.277216 5 4 tcp 1040 ------- 1 6.0 1.0 22 33
+ 0.277216 4 3 tcp 1040 ------- 1 6.0 1.0 22 33
- 0.285882 4 3 tcp 1040 ------- 1 6.0 1.0 12 18
r 0.286082 4 3 tcp 1040 ------- 1 6.0 1.0 11 17
+ 0.286082 3 2 tcp 1040 ------- 1 6.0 1.0 11 17
- 0.286082 3 2 tcp 1040 ------- 1 6.0 1.0 11 17
r 0.287114 3 2 tcp 1040 ------- 1 6.0 1.0 11 17
+ 0.287114 2 1 tcp 1040 ------- 1 6.0 1.0 11 17
- 0.287114 2 1 tcp 1040 ------- 1 6.0 1.0 11 17
r 0.288146 2 1 tcp 1040 ------- 1 6.0 1.0 11 17
+ 0.288146 1 2 ack 40 ------- 1 1.0 6.0 11 34
- 0.288146 1 2 ack 40 ------- 1 1.0 6.0 11 34
r 0.288378 1 2 ack 40 ------- 1 1.0 6.0 11 34
+ 0.288378 2 3 ack 40 ------- 1 1.0 6.0 11 34
- 0.288378 2 3 ack 40 ------- 1 1.0 6.0 11 34
r 0.28861 2 3 ack 40 ------- 1 1.0 6.0 11 34
+ 0.28861 3 4 ack 40 ------- 1 1.0 6.0 11 34
- 0.28861 3 4 ack 40 ------- 1 1.0 6.0 11 34
r 0.29201 3 4 ack 40 ------- 1 1.0 6.0 11 34
+ 0.29201 4 5 ack 40 ------- 1 1.0 6.0 11 34
- 0.29201 4 5 ack 40 ------- 1 1.0 6.0 11 34
r 0.292313 4 5 ack 40 ------- 1 1.0 6.0 11 34
+ 0.292313 5 6 ack 40 ------- 1 1.0 6.0 11 34
- 0.292313 5 6 ack 40 ------- 1 1.0 6.0 11 34
r 0.292617 5 6 ack 40 ------- 1 1.0 6.0 11 34
+ 0.292617 6 5 tcp 1040 ------- 1 6.0 1.0 23 35
- 0.292617 6 5 tcp 1040 ------- 1 6.0 1.0 23 35
+ 0.292617 6 5 tcp 1040 ------- 1 6.0 1.0 24 36
- 0.2927 6 5 tcp 1040 ------- 1 6.0 1.0 24 36
r 0.293 6 5 tcp 1040 ------- 1 6.0 1.0 23 35
+ 0.293 5 4 tcp 1040 ------- 1 6.0 1.0 23 35
- 0.293 5 4 tcp 1040 ------- 1 6.0 1.0 23 35
r 0.293083 6 5 tcp 1040 ------- 1 6.0 1.0 24 36
+ 0.293083 5 4 tcp 1040 ------- 1 6.0 1.0 24 36
- 0.293083 5 4 tcp 1040 ------- 1 6.0 1.0 24 36
r 0.293383 5 4 tcp 1040 ------- 1 6.0 1.0 23 35
+ 0.293383 4 3 tcp 1040 ------- 1 6.0 1.0 23 35
r 0.293466 5 4 tcp 1040 ------- 1 6.0 1.0 24 36
+ 0.293466 4 3 tcp 1040 ------- 1 6.0 1.0 24 36
- 0.302132 4 3 tcp 1040 ------- 1 6.0 1.0 13 20
r 0.302332 4 3 tcp 1040 ------- 1 6.0 1.0 12 18
+ 0.302332 3 2 tcp 1040 ------- 1 6.0 1.0 12 18
- 0.302332 3 2 tcp 1040 ------- 1 6.0 1.0 12 18
r 0.303364 3 2 tcp 1040 ------- 1 6.0 1.0 12 18
+ 0.303364 2 1 tcp 1040 ------- 1 6.0 1.0 12 18
- 0.303364 2 1 tcp 1040 ------- 1 6.0 1.0 12 18
r 0.304396 2 1 tcp 1040 ------- 1 6.0 1.0 12 18
+ 0.304396 1 2 ack 40 ------- 1 1.0 6.0 12 37
- 0.304396 1 2 ack 40 ------- 1 1.0 6.0 12 37
r 0.304628 1 2 ack 40 ------- 1 1.0 6.0 12 37
+ 0.304628 2 3 ack 40 ------- 1 1.0 6.0 12 37
- 0.304628 2 3 ack 40 ------- 1 1.0 6.0 12 37
r 0.30486 2 3 ack 40 ------- 1 1.0 6.0 12 37
+ 0.30486 3 4 ack 40 ------- 1 1.0 6.0 12 37
- 0.30486 3 4 ack 40 ------- 1 1.0 6.0 12 37
r 0.30826 3 4 ack 40 ------- 1 1.0 6.0 12 37
+ 0.30826 4 5 ack 40 ------- 1 1.0 6.0 12 37
- 0.30826 4 5 ack 40 ------- 1 1.0 6.0 12 37
r 0.308563 4 5 ack 40 ------- 1 1.0 6.0 12 37
+ 0.308563 5 6 ack 40 ------- 1 1.0 6.0 12 37
- 0.308563 5 6 ack 40 ------- 1 1.0 6.0 12 37
r 0.308867 5 6 ack 40 ------- 1 1.0 6.0 12 37
+ 0.308867 6 5 tcp 1040 ------- 1 6.0 1.0 25 38
- 0.308867 6 5 tcp 1040 ------- 1 6.0 1.0 25 38
+ 0.308867 6 5 tcp 1040 ------- 1 6.0 1.0 26 39
- 0.30895 6 5 tcp 1040 ------- 1 6.0 1.0 26 39
r 0.30925 6 5 tcp 1040 ------- 1 6.0 1.0 25 38
+ 0.30925 5 4 tcp 1040 ------- 1 6.0 1.0 25 38
- 0.30925 5 4 tcp 1040 ------- 1 6.0 1.0 25 38
r 0.309333 6 5 tcp 1040 ------- 1 6.0 1.0 26 39
+ 0.309333 5 4 tcp 1040 ------- 1 6.0 1.0 26 39
- 0.309333 5 4 tcp 1040 ------- 1 6.0 1.0 26 39
r 0.309633 5 4 tcp 1040 ------- 1 6.0 1.0 25 38
+ 0.309633 4 3 tcp 1040 ------- 1 6.0 1.0 25 38
r 0.309716 5 4 tcp 1040 ------- 1 6.0 1.0 26 39
+ 0.309716 4 3 tcp 1040 ------- 1 6.0 1.0 26 39
- 0.318382 4 3 tcp 1040 ------- 1 6.0 1.0 14 21
r 0.318582 4 3 tcp 1040 ------- 1 6.0 1.0 13 20
+ 0.318582 3 2 tcp 1040 ------- 1 6.0 1.0 13 20
- 0.318582 3 2 tcp 1040 ------- 1 6.0 1.0 13 20
r 0.319614 3 2 tcp 1040 ------- 1 6.0 1.0 13 20
+ 0.319614 2 1 tcp 1040 ------- 1 6.0 1.0 13 20
- 0.319614 2 1 tcp 1040 ------- 1 6.0 1.0 13 20
r 0.320646 2 1 tcp 1040 ------- 1 6.0 1.0 13 20
+ 0.320646 1 2 ack 40 ------- 1 1.0 6.0 13 40
- 0.320646 1 2 ack 40 ------- 1 1.0 6.0 13 40
r 0.320878 1 2 ack 40 ------- 1 1.0 6.0 13 40
+ 0.320878 2 3 ack 40 ------- 1 1.0 6.0 13 40
- 0.320878 2 3 ack 40 ------- 1 1.0 6.0 13 40
r 0.32111 2 3 ack 40 ------- 1 1.0 6.0 13 40
+ 0.32111 3 4 ack 40 ------- 1 1.0 6.0 13 40
- 0.32111 3 4 ack 40 ------- 1 1.0 6.0 13 40
r 0.32451 3 4 ack 40 ------- 1 1.0 6.0 13 40
+ 0.32451 4 5 ack 40 ------- 1 1.0 6.0 13 40
- 0.32451 4 5 ack 40 ------- 1 1.0 6.0 13 40
r 0.324813 4 5 ack 40 ------- 1 1.0 6.0 13 40
+ 0.324813 5 6 ack 40 ------- 1 1.0 6.0 13 40
- 0.324813 5 6 ack 40 ------- 1 1.0 6.0 13 40
r 0.325117 5 6 ack 40 ------- 1 1.0 6.0 13 40
+ 0.325117 6 5 tcp 1040 ------- 1 6.0 1.0 27 41
- 0.325117 6 5 tcp 1040 ------- 1 6.0 1.0 27 41
+ 0.325117 6 5 tcp 1040 ------- 1 6.0 1.0 28 42
- 0.3252 6 5 tcp 1040 ------- 1 6.0 1.0 28 42
r 0.3255 6 5 tcp 1040 ------- 1 6.0 1.0 27 41
+ 0.3255 5 4 tcp 1040 ------- 1 6.0 1.0 27 41
- 0.3255 5 4 tcp 1040 ------- 1 6.0 1.0 27 41
r 0.325583 6 5 tcp 1040 ------- 1 6.0 1.0 28 42
+ 0.325583 5 4 tcp 1040 ------- 1 6.0 1.0 28 42
- 0.325583 5 4 tcp 1040 ------- 1 6.0 1.0 28 42
r 0.325883 5 4 tcp 1040 ------- 1 6.0 1.0 27 41
+ 0.325883 4 3 tcp 1040 ------- 1 6.0 1.0 27 41
r 0.325966 5 4 tcp 1040 ------- 1 6.0 1.0 28 42
+ 0.325966 4 3 tcp 1040 ------- 1 6.0 1.0 28 42
- 0.334632 4 3 tcp 1040 ------- 1 6.0 1.0 15 23
r 0.334832 4 3 tcp 1040 ------- 1 6.0 1.0 14 21
+ 0.334832 3 2 tcp 1040 ------- 1 6.0 1.0 14 21
- 0.334832 3 2 tcp 1040 ------- 1 6.0 1.0 14 21
r 0.335864 3 2 tcp 1040 ------- 1 6.0 1.0 14 21
+ 0.335864 2 1 tcp 1040 ------- 1 6.0 1.0 14 21
- 0.335864 2 1 tcp 1040 ------- 1 6.0 1.0 14 21
r 0.336896 2 1 tcp 1040 ------- 1 6.0 1.0 14 21
+ 0.336896 1 2 ack 40 ------- 1 1.0 6.0 14 43
- 0.336896 1 2 ack 40 ------- 1 1.0 6.0 14 43
r 0.337128 1 2 ack 40 ------- 1 1.0 6.0 14 43
+ 0.337128 2 3 ack 40 ------- 1 1.0 6.0 14 43
- 0.337128 2 3 ack 40 ------- 1 1.0 6.0 14 43
r 0.33736 2 3 ack 40 ------- 1 1.0 6.0 14 43
+ 0.33736 3 4 ack 40 ------- 1 1.0 6.0 14 43
- 0.33736 3 4 ack 40 ------- 1 1.0 6.0 14 43
r 0.34076 3 4 ack 40 ------- 1 1.0 6.0 14 43
+ 0.34076 4 5 ack 40 ------- 1 1.0 6.0 14 43
- 0.34076 4 5 ack 40 ------- 1 1.0 6.0 14 43
r 0.341063 4 5 ack 40 ------- 1 1.0 6.0 14 43
+ 0.341063 5 6 ack 40 ------- 1 1.0 6.0 14 43
- 0.341063 5 6 ack 40 ------- 1 1.0 6.0 14 43
r 0.341367 5 6 ack 40 ------- 1 1.0 6.0 14 43
+ 0.341367 6 5 tcp 1040 ------- 1 6.0 1.0 29 44
- 0.341367 6 5 tcp 1040 ------- 1 6.0 1.0 29 44
+ 0.341367 6 5 tcp 1040 ------- 1 6.0 1.0 30 45
- 0.34145 6 5 tcp 1040 ------- 1 6.0 1.0 30 45
r 0.34175 6 5 tcp 1040 ------- 1 6.0 1.0 29 44
+ 0.34175 5 4 tcp 1040 ------- 1 6.0 1.0 29 44
- 0.34175 5 4 tcp 1040 ------- 1 6.0 1.0 29 44
r 0.341833 6 5 tcp 1040 ------- 1 6.0 1.0 30 45
+ 0.341833 5 4 tcp 1040 ------- 1 6.0 1.0 30 45
- 0.341833 5 4 tcp 1040 ------- 1 6.0 1.0 30 45
r 0.342133 5 4 tcp 1040 ------- 1 6.0 1.0 29 44
+ 0.342133 4 3 tcp 1040 ------- 1 6.0 1.0 29 44
r 0.342216 5 4 tcp 1040 ------- 1 6.0 1.0 30 45
+ 0.342216 4 3 tcp 1040 ------- 1 6.0 1.0 30 45
- 0.350882 4 3 tcp 1040 ------- 1 6.0 1.0 16 24
r 0.351082 4 3 tcp 1040 ------- 1 6.0 1.0 15 23
+ 0.351082 3 2 tcp 1040 ------- 1 6.0 1.0 15 23
- 0.351082 3 2 tcp 1040 ------- 1 6.0 1.0 15 23
r 0.352114 3 2 tcp 1040 ------- 1 6.0 1.0 15 23
+ 0.352114 2 1 tcp 1040 ------- 1 6.0 1.0 15 23
- 0.352114 2 1 tcp 1040 ------- 1 6.0 1.0 15 23
r 0.353146 2 1 tcp 1040 ------- 1 6.0 1.0 15 23
+ 0.353146 1 2 ack 40 ------- 1 1.0 6.0 15 46
- 0.353146 1 2 ack 40 ------- 1 1.0 6.0 15 46
r 0.353378 1 2 ack 40 ------- 1 1.0 6.0 15 46
+ 0.353378 2 3 ack 40 ------- 1 1.0 6.0 15 46
- 0.353378 2 3 ack 40 ------- 1 1.0 6.0 15 46
r 0.35361 2 3 ack 40 ------- 1 1.0 6.0 15 46
+ 0.35361 3 4 ack 40 ------- 1 1.0 6.0 15 46
- 0.35361 3 4 ack 40 ------- 1 1.0 6.0 15 46
r 0.35701 3 4 ack 40 ------- 1 1.0 6.0 15 46
+ 0.35701 4 5 ack 40 ------- 1 1.0 6.0 15 46
- 0.35701 4 5 ack 40 ------- 1 1.0 6.0 15 46
r 0.357313 4 5 ack 40 ------- 1 1.0 6.0 15 46
+ 0.357313 5 6 ack 40 ------- 1 1.0 6.0 15 46
- 0.357313 5 6 ack 40 ------- 1 1.0 6.0 15 46
r 0.357617 5 6 ack 40 ------- 1 1.0 6.0 15 46
+ 0.357617 6 5 tcp 1040 ------- 1 6.0 1.0 31 47
- 0.357617 6 5 tcp 1040 ------- 1 6.0 1.0 31 47
+ 0.357617 6 5 tcp 1040 ------- 1 6.0 1.0 32 48
- 0.3577 6 5 tcp 1040 ------- 1 6.0 1.0 32 48
r 0.358 6 5 tcp 1040 ------- 1 6.0 1.0 31 47
+ 0.358 5 4 tcp 1040 ------- 1 6.0 1.0 31 47
- 0.358 5 4 tcp 1040 ------- 1 6.0 1.0 31 47
r 0.358083 6 5 tcp 1040 ------- 1 6.0 1.0 32 48
+ 0.358083 5 4 tcp 1040 ------- 1 6.0 1.0 32 48
- 0.358083 5 4 tcp 1040 ------- 1 6.0 1.0 32 48
r 0.358383 5 4 tcp 1040 ------- 1 6.0 1.0 31 47
+ 0.358383 4 3 tcp 1040 ------- 1 6.0 1.0 31 47
r 0.358466 5 4 tcp 1040 ------- 1 6.0 1.0 32 48
+ 0.358466 4 3 tcp 1040 ------- 1 6.0 1.0 32 48
- 0.367132 4 3 tcp 1040 ------- 1 6.0 1.0 17 26
r 0.367332 4 3 tcp 1040 ------- 1 6.0 1.0 16 24
+ 0.367332 3 2 tcp 1040 ------- 1 6.0 1.0 16 24
- 0.367332 3 2 tcp 1040 ------- 1 6.0 1.0 16 24
r 0.368364 3 2 tcp 1040 ------- 1 6.0 1.0 16 24
+ 0.368364 2 1 tcp 1040 ------- 1 6.0 1.0 16 24
- 0.368364 2 1 tcp 1040 ------- 1 6.0 1.0 16 24
r 0.369396 2 1 tcp 1040 ------- 1 6.0 1.0 16 24
+ 0.369396 1 2 ack 40 ------- 1 1.0 6.0 16 49
- 0.369396 1 2 ack 40 ------- 1 1.0 6.0 16 49
r 0.369628 1 2 ack 40 ------- 1 1.0 6.0 16 49
+ 0.369628 2 3 ack 40 ------- 1 1.0 6.0 16 49
- 0.369628 2 3 ack 40 ------- 1 1.0 6.0 16 49
r 0.36986 2 3 ack 40 ------- 1 1.0 6.0 16 49
+ 0.36986 3 4 ack 40 ------- 1 1.0 6.0 16 49
- 0.36986 3 4 ack 40 ------- 1 1.0 6.0 16 49
r 0.37326 3 4 ack 40 ------- 1 1.0 6.0 16 49
+ 0.37326 4 5 ack 40 ------- 1 1.0 6.0 16 49
- 0.37326 4 5 ack 40 ------- 1 1.0 6.0 16 49
r 0.373563 4 5 ack 40 ------- 1 1.0 6.0 16 49
+ 0.373563 5 6 ack 40 ------- 1 1.0 6.0 16 49
- 0.373563 5 6 ack 40 ------- 1 1.0 6.0 16 49
r 0.373867 5 6 ack 40 ------- 1 1.0 6.0 16 49
+ 0.373867 6 5 tcp 1040 ------- 1 6.0 1.0 33 50
- 0.373867 6 5 tcp 1040 ------- 1 6.0 1.0 33 50
+ 0.373867 6 5 tcp 1040 ------- 1 6.0 1.0 34 51
- 0.37395 6 5 tcp 1040 ------- 1 6.0 1.0 34 51
r 0.37425 6 5 tcp 1040 ------- 1 6.0 1.0 33 50
+ 0.37425 5 4 tcp 1040 ------- 1 6.0 1.0 33 50
- 0.37425 5 4 tcp 1040 ------- 1 6.0 1.0 33 50
r 0.374333 6 5 tcp 1040 ------- 1 6.0 1.0 34 51
+ 0.374333 5 4 tcp 1040 ------- 1 6.0 1.0 34 51
- 0.374333 5 4 tcp 1040 ------- 1 6.0 1.0 34 51
r 0.374633 5 4 tcp 1040 ------- 1 6.0 1.0 33 50
+ 0.374633 4 3 tcp 1040 ------- 1 6.0 1.0 33 50
r 0.374716 5 4 tcp 1040 ------- 1 6.0 1.0 34 51
+ 0.374716 4 3 tcp 1040 ------- 1 6.0 1.0 34 51
- 0.383382 4 3 tcp 1040 ------- 1 6.0 1.0 18 27
r 0.383582 4 3 tcp 1040 ------- 1 6.0 1.0 17 26
+ 0.383582 3 2 tcp 1040 ------- 1 6.0 1.0 17 26
- 0.383582 3 2 tcp 1040 ------- 1 6.0 1.0 17 26
r 0.384614 3 2 tcp 1040 ------- 1 6.0 1.0 17 26
+ 0.384614 2 1 tcp 1040 ------- 1 6.0 1.0 17 26
- 0.384614 2 1 tcp 1040 ------- 1 6.0 1.0 17 26
r 0.385646 2 1 tcp 1040 ------- 1 6.0 1.0 17 26
+ 0.385646 1 2 ack 40 ------- 1 1.0 6.0 17 52
- 0.385646 1 2 ack 40 ------- 1 1.0 6.0 17 52
r 0.385878 1 2 ack 40 ------- 1 1.0 6.0 17 52
+ 0.385878 2 3 ack 40 ------- 1 1.0 6.0 17 52
- 0.385878 2 3 ack 40 ------- 1 1.0 6.0 17 52